
  ========================================================================
                license information 
 Customer : Uni Aix-Marseille
 ID       : 100524

 License file is VALID, continuing with full version
  ========================================================================
           SMPCPUS    set: Shared-memory Parallelization with   8 CPUs.

           SMP Parallelization Reference:
           C. van Wullen, J. Comput. Chem. 32 (2011) 1195--1201
 operating system is UNIX !

 escf (plana.local) : TURBOMOLE V7.3 ( 22091 ) 12 Jun 2018 at 12:37:00
 Copyright (C) 2018 TURBOMOLE GmbH, Karlsruhe


    2019-06-04 09:44:39.313 




                                e s c f

                             TURBOMOLE GmbH


          integral direct evaluation of 

                    * excitation energies and transition moments 
                    * dynamic response properties 
                    * stabilities



          references (see also programs dscf and ridft) 

          implementation and benchmarks (review) 
          F. Furche and D. Rappoport,  
          "Density functional methods for excited states: 
          equilibrium structure and electronic spectra",
          ch. III of "Computational Photochemistry", ed. by 
          M. Olivucci, vol. 16 of "Theoretical and Computational 
          Chemistry", Elsevier, Amsterdam, 2005.

          Bethe-Salpeter equation
          K. Krause and W. Klopper,
          J. Comput. Chem. 38 (2017) 383.

          nonorthonormal Krylov space methods 
          F. Furche, B. T. Krull, B. D. Nguyen, and J. Kwon, 
          J. Chem. Phys. 144 (2016), 174105.

          two-component GW quasi particle energies 
          M. Kuehn and F. Weigend, 
          J. Chem. Theory Comput. 11 (2015), 969.

          two-component TDDFT with spin-orbit coupling 
          M. Kuehn and F. Weigend, 
          J. Chem. Theory Comput. 9 (2013), 5341.
          M. Kuehn and F. Weigend, 
          J. Chem. Phys. 142 (2015), 034116.

          GW quasi particle energies
          M. J. van Setten, F. Weigend, and F. Evers,
          J. Chem. Theory Comput. 9 (2013), 232.

          current-density dependent meta-GGA Linear Response
          J. E. Bates and F. Furche, 
          J. Chem. Phys. 137 (2012), 164105.

          spin-flip method 
          M. Kuehn and F. Weigend, 
          Chem. Phys. Chem. 12 (2011), 3331.

          RI-J method 
          R. Bauernschmitt, M. Haeser, O. Treutler, and R. Ahlrichs,
          Chem. Phys. Lett. 264 (1997), 573.

          density functional implementation               
          R. Bauernschmitt and R. Ahlrichs,
          Chem. Phys. Lett. 256 (1996), 454.
          R. Bauernschmitt and R. Ahlrichs,
          J. Chem. Phys. 104 (1996), 9047.

          UHF extension (RPA and CIS)
          C. Ochsenfeld, J. Gauss, and R. Ahlrichs, 
          J. Chem. Phys. 103 (1995), 7401.

          integral direct algorithm                 
          H. Weiss, R. Ahlrichs, and M. Haeser, 
          J. Chem. Phys. 99 (1993), 1262.
                                     




              +--------------------------------------------------+
              | Atomic coordinate, charge and isotop information |
              +--------------------------------------------------+

                    atomic coordinates            atom    charge  isotop
          2.10779253   -5.43444432    0.00000000    c      6.000     0
          0.21396782   -3.56833872    0.00000000    c      6.000     0
          4.65890029   -4.76816720    0.00000000    c      6.000     0
          0.94099219   -0.96308187    0.00000000    c      6.000     0
         -2.42842376   -4.17758398    0.00000000    c      6.000     0
          3.56245516   -0.29661260    0.00000000    c      6.000     0
         -0.94102048    0.96306099    0.00000000    c      6.000     0
         -4.23286023   -2.33090221    0.00000000    c      6.000     0
          5.38414881   -2.23314166    0.00000000    c      6.000     0
          4.23282619    2.33098163    0.00000000    c      6.000     0
         -3.56243755    0.29662907    0.00000000    c      6.000     0
         -0.21399925    3.56828535    0.00000000    c      6.000     0
          2.42839076    4.17763481    0.00000000    c      6.000     0
         -5.38413271    2.23319189    0.00000000    c      6.000     0
         -4.65888689    4.76816379    0.00000000    c      6.000     0
         -2.10775836    5.43436572    0.00000000    c      6.000     0
          1.55596672   -7.42268257    0.00000000    h      1.000     0
          6.09986300   -6.24288667    0.00000000    h      1.000     0
         -2.97471637   -6.16781891    0.00000000    h      1.000     0
         -6.23518289   -2.83080196    0.00000000    h      1.000     0
          7.38464283   -1.72754398    0.00000000    h      1.000     0
          6.23522004    2.83077951    0.00000000    h      1.000     0
          2.97451570    6.16789199    0.00000000    h      1.000     0
         -7.38457043    1.72752962    0.00000000    h      1.000     0
         -6.09977092    6.24291999    0.00000000    h      1.000     0
         -1.55592220    7.42257230    0.00000000    h      1.000     0
 
       center of nuclear mass  :   -0.00000247    0.00000221    0.00000000
       center of nuclear charge:   -0.00000215    0.00000192    0.00000000

   *************************************************************************
   Auto-generated input                                                     
   *************************************************************************



              +--------------------------------------------------+
              |               basis set information              |
              +--------------------------------------------------+

              we will work with the 1s 3p 5d 7f 9g ... basis set
              ...i.e. with spherical basis functions...

   type   atoms  prim   cont   basis
   ---------------------------------------------------------------------------
    c       16     46     31   def2-TZVP   [5s3p2d1f|11s6p2d1f]
    h       10      8      6   def2-TZVP   [3s1p|5s1p]
   ---------------------------------------------------------------------------
   total:   26    816    556
   ---------------------------------------------------------------------------

   total number of primitive shells          :   26
   total number of contracted shells         :  216
   total number of cartesian basis functions :  636
   total number of SCF-basis functions       :  556


 residuum convergence criterium   :  0.10E-04


 integral neglect threshold       :  0.52E-11
 integral storage threshold THIZE :  0.10E-04
 integral storage threshold THIME :         5

 
             FOUND RI-J FLAG !
 
  
 AUXILIARY BASIS SET information:

              we will work with the 1s 3p 5d 7f 9g ... basis set
              ...i.e. with spherical basis functions...

   type   atoms  prim   cont   basis
   ---------------------------------------------------------------------------
    c       16     70     49   def2-TZVP   [6s4p3d1f1g|12s5p4d2f1g]
    h       10     16     11   def2-TZVP   [3s1p1d|5s2p1d]
   ---------------------------------------------------------------------------
   total:   26   1280    894
   ---------------------------------------------------------------------------

   total number of primitive shells          :   32
   total number of contracted shells         :  290
   total number of cartesian basis functions : 1096
   total number of SCF-basis functions       :  894

 RPA SINGLET-EXCITATION-CALCULATION 
 
             FOUND DFT-FLAG !
 

 symmetry group of the molecule :   cs

 the group has the following generators :
   c1(z)
   mirror plane sigma(xy)

    2 symmetry operations found

 there are 2 real representations :   a'   a"  

 maximum number of shells which are related by symmetry :  1

 IRREPs of excited states :   a'   a"  
 

 determining totally symmetric integral contributions 
    - equivalent to irreducible tensor elements - 
 which can be formed within each triple of representations :

             representation triple      contributions

              a'    a'    a'              1
              a'    a"    a"              1
              a"    a'    a"              1
              a"    a"    a'              1

    mo occupation :
   irrep   mo's   occupied
    a'     386       45
    a"     170        8
 
 number of basis functions   :                    556
 number of occupied orbitals :                     53
 
  
           ------------------
           density functional
           ------------------
 B-P86 functional
 exchange:    LDA + Becke (B88)
 correlation: LDA (VWN) + Perdew (P86)

 iterations will be done with small grid
  
 spherical integration : Lebedev's spherical grid
 spherical gridsize    :                     4
    i.e. gridpoints    :                   434
 value for diffuse not defined
 radial integration    : Chebyshev 2nd kind (scaling 3)
 radial gridsize       :                     6
 integration cells     :                    26
 partition function    : becke
 partition sharpness   :                     3
  
  
           ----------------------
               RI - INFORMATION
           ----------------------

 biggest AO integral is expected to be     5.725698708

 Threshold for integral neglect (rithr2):   0.52E-11
 Threshold for integral neglect (rithr1):   0.52E-11

 Contributions to RI integral batches: 
  neglected integral batches:                  3962
  direct contribution:                         9728
  memory contribution:                  9746
 Core memory available (ricore)            500 MiB
 Core memory needed for (P|Q) and Cholesky 4 MiB
 Core memory used for integrals            399 MiB
  
 ****************************************
 Memory allocated for RIDFT 403 MiB
 ****************************************
                                            
  MOs are in ASCII format !


 reading orbital data $scfmo  from file mos
 orbital characterization : scfconv=6
 preparing numerical integration ....
          Overall gridpoints after grid construction =         40406

 Calculating ground state density on molecular grid

 Integral of ground state density: N =   106.0012570509206    


 all orbitals will be included in the transformation

 number of non-frozen orbitals          :   556
 number of non-frozen occupied orbitals :    53



 dimension of super-tensorspace: 1

          IRREP   tensor space dimension   number of roots

           a'            16641                  50
           a"            10018                  50

 maximum number of Davidson iterations set to   25


 machine precision: 2.22D-16


 logfile sing_a'   will be constructed

 logfile sing_a"   will be constructed


                       Nonorthonormal Krylov Space Iteration


 total number of roots to be determined: 100


 maximum core memory set to  4000 MB,
 corresponding to     1281 vectors in CAO basis


 maximum number of simultaneously treated vectors (including degeneracy):      116


 Iteration IRREP Converged      Max. Euclidean
                 roots          residual norm

    1       a'       0        2.311507209356261D-01
            a"       0        5.458911363328724D-02
 
    2       a'       0        6.376855813767962D-02
            a"       0        6.708301514315684D-03
 
    3       a'       0        1.098966215034479D-02
            a"       0        4.408509472072525D-04
 
    4       a'       0        2.229077364298436D-03
            a"      44        2.241842836635794D-05
 
    5       a'      22        1.462604274871324D-04
            a"      50        9.396057882969901D-06
 
    6       a'      49        1.068888488461608D-05
            a"      50        9.396057882969901D-06
 
    7       a'      50        9.178769897264633D-06
            a"      50        9.396057882969901D-06
 

 converged!


 Switching to fine grid

 preparing numerical integration ....
          Overall gridpoints after grid construction =        137694

 Calculating ground state density on molecular grid

 Integral of ground state density: N =   106.0001611129675    



 Iteration IRREP Converged      Max. Euclidean
                 roots          residual norm

    8       a'       0        4.273270366378450D-05
            a"       8        9.912510273167855D-05
 

 NOTE: Residual norms are larger than 1.00D-05 due to mgrid option!

 Eigenpairs written on logfile sing_a'  

 Eigenpairs written on logfile sing_a"  



 IRREP   Vector     Eigenvalue           Euclidean residual norm

  a'        1    1.518055790350586D-02    1.537534574855555D-05
            2    1.612651659469164D-02    1.015407767106270D-05
            3    1.980913152074264D-02    1.427619534518116D-05
            4    2.328396739636773D-02    1.961020580518483D-05
            5    2.370822023165072D-02    1.261677930715825D-05
            6    2.631808995877805D-02    1.235353372602054D-05
            7    2.960632297760111D-02    1.487000308827499D-05
            8    3.418045724172909D-02    2.011704489596290D-05
            9    3.529294396893950D-02    1.050542235788092D-05
           10    3.542925861085006D-02    1.962951461664753D-05
           11    3.700210678022146D-02    1.929342031575492D-05
           12    3.973833087872393D-02    1.407930626360874D-05
           13    4.035296229586906D-02    2.554643601606195D-05
           14    4.353845864128771D-02    3.564212971214742D-05
           15    4.643549671248978D-02    1.761209501910801D-05
           16    4.757394145570282D-02    1.770303829557192D-05
           17    5.160895426656478D-02    1.681681836037677D-05
           18    5.326162571597348D-02    1.678394727122922D-05
           19    5.649984375354197D-02    1.499551154141277D-05
           20    5.654610425286780D-02    2.028634396304792D-05
           21    5.741203757788984D-02    2.944720640663892D-05
           22    6.128169709671324D-02    1.558000199601088D-05
           23    6.217652581195884D-02    1.698316605319623D-05
           24    6.375302100527126D-02    2.692265929184651D-05
           25    6.539691682142987D-02    1.300319630175986D-05
           26    6.907093389280212D-02    2.857865431242980D-05
           27    7.134648888519692D-02    2.964441593810437D-05
           28    7.139248766073077D-02    1.053691961059232D-05
           29    7.526805948954766D-02    2.018207803866759D-05
           30    7.622844195763126D-02    2.134883375146575D-05
           31    7.669187425656007D-02    2.489781131677130D-05
           32    8.247436337689656D-02    2.624768593793664D-05
           33    8.316672095885680D-02    1.677701296796867D-05
           34    8.659465903584890D-02    2.423232332078853D-05
           35    8.741144695259587D-02    2.417222827215763D-05
           36    9.016339196171182D-02    3.418569596845276D-05
           37    9.614842977037955D-02    3.012981284289636D-05
           38    9.781225512744625D-02    2.088501279471916D-05
           39    9.913920785144921D-02    2.959848550714106D-05
           40    1.008627488090416D-01    2.512394545901361D-05
           41    1.050282782033469D-01    1.532647382313429D-05
           42    1.052425075503529D-01    2.128351000640754D-05
           43    1.059483039815184D-01    3.496565571871853D-05
           44    1.059808646107099D-01    2.089537433066868D-05
           45    1.087991349593317D-01    3.755347520120251D-05
           46    1.096495269740935D-01    2.946719152644574D-05
           47    1.115224988674913D-01    2.408096244196115D-05
           48    1.116615222845385D-01    2.427193433018328D-05
           49    1.131032312640584D-01    4.273270366378450D-05
           50    1.149138394302634D-01    2.123758687968559D-05

  a"        1    3.738281724534813D-02    7.198238351447566D-06
            2    4.036533521118229D-02    7.760847099610836D-06
            3    4.817737632624577D-02    1.391463708948099D-05
            4    4.848503883950006D-02    6.872684586256380D-06
            5    5.244615350201404D-02    1.932110118174796D-05
            6    5.308981596259937D-02    1.156372277087229D-05
            7    5.492676336575544D-02    1.827181162728029D-05
            8    5.535873624366897D-02    1.166212025606210D-05
            9    5.576886195470732D-02    1.106063832843611D-05
           10    5.656405420454711D-02    1.099278783830879D-05
           11    5.900119319710286D-02    1.266670573624874D-05
           12    6.143951663257374D-02    1.961926327521167D-05
           13    6.228416479864513D-02    1.748706399565781D-05
           14    6.606854161511029D-02    1.773561568266660D-05
           15    6.614880278197724D-02    1.712042926135688D-05
           16    6.706131472446504D-02    2.002395721287807D-05
           17    6.711923268883799D-02    1.374461202549664D-05
           18    6.899117947215995D-02    1.042967562603903D-05
           19    6.958564567390650D-02    1.024307139541253D-05
           20    6.981547090412313D-02    1.282576515617830D-05
           21    6.993093278046077D-02    1.464544589696198D-05
           22    7.007009672504291D-02    1.234828180108258D-05
           23    7.044459328116395D-02    1.355119259443572D-05
           24    7.157983910420208D-02    9.021875989640121D-06
           25    7.197601656001211D-02    1.748305105315586D-05
           26    7.489905779724439D-02    1.989038794076150D-05
           27    7.675945793598773D-02    8.894015673034598D-06
           28    7.713730974480186D-02    1.290642161474727D-05
           29    7.727960513360690D-02    2.097214280472266D-05
           30    7.745739684482687D-02    1.021304131606112D-05
           31    7.912087152739734D-02    9.912510273167855D-05
           32    8.015693061535512D-02    2.294547137359060D-05
           33    8.016494260300300D-02    8.281893919315121D-06
           34    8.163796418221497D-02    9.489209128526996D-06
           35    8.200167069466460D-02    1.344238237001617D-05
           36    8.233636654013909D-02    1.224973298045310D-05
           37    8.418124348538923D-02    2.002958901929132D-05
           38    8.505341165265000D-02    7.149634095851952D-06
           39    8.542827269397116D-02    1.181368373261177D-05
           40    8.678540799034744D-02    1.836795518970053D-05
           41    8.713500372959102D-02    1.536028270575189D-05
           42    8.753075814697617D-02    1.804477345653659D-05
           43    8.799393473071178D-02    2.462653220372188D-05
           44    8.925187022055384D-02    1.325062962514182D-05
           45    8.989745568036761D-02    3.712350019880164D-05
           46    9.003343354121444D-02    1.370437840377253D-05
           47    9.021621461782987D-02    1.379894093690350D-05
           48    9.044231757965229D-02    1.343886899441193D-05
           49    9.057944041122834D-02    7.917434975740123D-05
           50    9.066654726562590D-02    1.826836332445477D-05
 




                    Selection rules for point group cs  


 Subduction with respect to cs  :

    Polar vector representation: a', a"                      

    Axial vector representation: a', a"                      

    Symmetric second rank tensor representation: a', a"                      




                            Ground state


 Total energy:                           -616.0077853925000    

 Charge:

               elec          nuc         total

          -106.000000   106.000000     0.000000


 Electric dipole moment:

               elec          nuc         total   

    x       -0.000162    -0.000227    -0.000390    Norm:              0.000556
    y        0.000193     0.000203     0.000397
    z        0.000000     0.000000     0.000000    Norm / debye:      0.001413


 Electric quadrupole moment:

               elec          nuc         total   

   xx    -1454.589558  1394.655340   -59.934218
   yy    -1472.821907  1412.889829   -59.932078    1/3*trace:       -64.407816
   zz      -73.357154     0.000000   -73.357154
   xy      393.604245  -393.670328    -0.066083
   xz        0.000000     0.000000     0.000000    Anisotropy:       13.424494
   yz        0.000000     0.000000     0.000000



 ==============================================================================

                              I R R E P   a'  

 ==============================================================================


 Excitation is electric dipole allowed

 Excitation is magnetic dipole allowed

 Excitation is electric quadrupole allowed




                         1 singlet a' excitation


 Total energy:                           -615.8845759857832    

 Excitation energy:                      0.1232094067168001    

 Excitation energy / eV:                  3.352699978041506    

 Excitation energy / nm:                  369.8041722149391    

 Excitation energy / cm^(-1):             27041.33903793580    


 Oscillator strength:

    velocity representation:             0.2020820653314100    

    length representation:               0.2026708130878791    

    mixed representation:                0.2023762251104808    


 Rotatory strength:

    velocity representation:              0.000000000000000    

    velocity rep. / 10^(-40)erg*cm^3:     0.000000000000000    

    length representation:                0.000000000000000    

    length rep. / 10^(-40)erg*cm^3:       0.000000000000000    


 Dominant contributions:

      occ. orbital   energy / eV   virt. orbital     energy / eV   |coeff.|^2*100
        8 a"             -5.16           9 a"             -2.53       87.6
        7 a"             -5.97          10 a"             -1.77        8.8
 

 Change of electron number:

             0.000000


 Electric transition dipole moment (velocity rep.):

    x        1.096171        Norm:                  1.568511
    y       -1.121890
    z        0.000000        Norm / debye:          3.986788


 Electric transition dipole moment (length rep.):

    x        1.097773        Norm:                  1.570794
    y       -1.123517
    z        0.000000        Norm / debye:          3.992591


 Magnetic transition dipole moment / i:

    x        0.000000        Norm:                  0.000000
    y        0.000000
    z       -0.000000        Norm / Bohr mag.:      0.000074


 Electric quadrupole transition moment:

   xx        0.000011
   yy        0.000130        1/3*trace:             0.000048
   zz        0.000002
   xy       -0.000150
   xz        0.000000        Anisotropy:            0.000288
   yz        0.000000




                         2 singlet a' excitation


 Total energy:                           -615.8807951700626    

 Excitation energy:                      0.1269902224373658    

 Excitation energy / eV:                  3.455581252459584    

 Excitation energy / nm:                  358.7941794689964    

 Excitation energy / cm^(-1):             27871.13217195171    


 Oscillator strength:

    velocity representation:             0.4579934900242411E-03

    length representation:               0.3330902217784969E-03

    mixed representation:                0.3905805182283731E-03


 Rotatory strength:

    velocity representation:              0.000000000000000    

    velocity rep. / 10^(-40)erg*cm^3:     0.000000000000000    

    length representation:                0.000000000000000    

    length rep. / 10^(-40)erg*cm^3:       0.000000000000000    


 Dominant contributions:

      occ. orbital   energy / eV   virt. orbital     energy / eV   |coeff.|^2*100
        8 a"             -5.16          10 a"             -1.77       55.5
        7 a"             -5.97           9 a"             -2.53       44.5
 

 Change of electron number:

            -0.000000


 Electric transition dipole moment (velocity rep.):

    x        0.052669        Norm:                  0.073551
    y        0.051340
    z        0.000000        Norm / debye:          0.186950


 Electric transition dipole moment (length rep.):

    x        0.044929        Norm:                  0.062725
    y        0.043770
    z        0.000000        Norm / debye:          0.159433


 Magnetic transition dipole moment / i:

    x        0.000000        Norm:                  0.000001
    y        0.000000
    z        0.000001        Norm / Bohr mag.:      0.000232


 Electric quadrupole transition moment:

   xx        0.000163
   yy       -0.000164        1/3*trace:            -0.000007
   zz       -0.000022
   xy        0.000021
   xz        0.000000        Anisotropy:            0.000286
   yz        0.000000




                         3 singlet a' excitation


 Total energy:                           -615.8670404759994    

 Excitation energy:                      0.1407449165005352    

 Excitation energy / eV:                  3.829865681809635    

 Excitation energy / nm:                  323.7300059773507    

 Excitation energy / cm^(-1):             30889.93857185731    


 Oscillator strength:

    velocity representation:             0.1350519036010409E-08

    length representation:               0.1239799057512331E-08

    mixed representation:                0.1292992928127114E-08


 Rotatory strength:

    velocity representation:              0.000000000000000    

    velocity rep. / 10^(-40)erg*cm^3:     0.000000000000000    

    length representation:                0.000000000000000    

    length rep. / 10^(-40)erg*cm^3:       0.000000000000000    


 Dominant contributions:

      occ. orbital   energy / eV   virt. orbital     energy / eV   |coeff.|^2*100
        8 a"             -5.16          11 a"             -1.39       80.5
        6 a"             -6.48           9 a"             -2.53       19.4
 

 Change of electron number:

            -0.000000


 Electric transition dipole moment (velocity rep.):

    x       -0.000077        Norm:                  0.000120
    y       -0.000092
    z        0.000000        Norm / debye:          0.000305


 Electric transition dipole moment (length rep.):

    x       -0.000070        Norm:                  0.000115
    y       -0.000091
    z        0.000000        Norm / debye:          0.000292


 Magnetic transition dipole moment / i:

    x        0.000000        Norm:                  0.005306
    y        0.000000
    z       -0.005306        Norm / Bohr mag.:      1.454339


 Electric quadrupole transition moment:

   xx       -0.203678
   yy        0.203734        1/3*trace:             0.000021
   zz        0.000006
   xy        0.004661
   xz        0.000000        Anisotropy:            0.352922
   yz        0.000000




                         4 singlet a' excitation


 Total energy:                           -615.8551945428517    

 Excitation energy:                      0.1525908496482267    

 Excitation energy / eV:                  4.152210061694802    

 Excitation energy / nm:                  298.5981975003014    

 Excitation energy / cm^(-1):             33489.82037474379    


 Oscillator strength:

    velocity representation:             0.1800878758024909    

    length representation:               0.1747116261230428    

    mixed representation:                0.1773793833176188    


 Rotatory strength:

    velocity representation:              0.000000000000000    

    velocity rep. / 10^(-40)erg*cm^3:     0.000000000000000    

    length representation:                0.000000000000000    

    length rep. / 10^(-40)erg*cm^3:       0.000000000000000    


 Dominant contributions:

      occ. orbital   energy / eV   virt. orbital     energy / eV   |coeff.|^2*100
        7 a"             -5.97           9 a"             -2.53       49.3
        8 a"             -5.16          10 a"             -1.77       39.0
        5 a"             -6.97          11 a"             -1.39        5.2
 

 Change of electron number:

            -0.000000


 Electric transition dipole moment (velocity rep.):

    x        0.951686        Norm:                  1.330527
    y        0.929836
    z        0.000000        Norm / debye:          3.381887


 Electric transition dipole moment (length rep.):

    x        0.937370        Norm:                  1.310516
    y        0.915855
    z        0.000000        Norm / debye:          3.331024


 Magnetic transition dipole moment / i:

    x        0.000000        Norm:                  0.000000
    y        0.000000
    z       -0.000000        Norm / Bohr mag.:      0.000021


 Electric quadrupole transition moment:

   xx       -0.000018
   yy       -0.000102        1/3*trace:            -0.000041
   zz       -0.000002
   xy       -0.000027
   xz        0.000000        Anisotropy:            0.000103
   yz        0.000000




                         5 singlet a' excitation


 Total energy:                           -615.8538106535599    

 Excitation energy:                      0.1539747389400311    

 Excitation energy / eV:                  4.189867621469512    

 Excitation energy / nm:                  295.9144660589142    

 Excitation energy / cm^(-1):             33793.54896599223    


 Oscillator strength:

    velocity representation:             0.1336313517440884E-09

    length representation:               0.1806127035948745E-09

    mixed representation:                0.1501056454439065E-09


 Rotatory strength:

    velocity representation:              0.000000000000000    

    velocity rep. / 10^(-40)erg*cm^3:     0.000000000000000    

    length representation:                0.000000000000000    

    length rep. / 10^(-40)erg*cm^3:       0.000000000000000    


 Dominant contributions:

      occ. orbital   energy / eV   virt. orbital     energy / eV   |coeff.|^2*100
        6 a"             -6.48           9 a"             -2.53       79.1
        8 a"             -5.16          11 a"             -1.39       18.6
 

 Change of electron number:

             0.000000


 Electric transition dipole moment (velocity rep.):

    x        0.000025        Norm:                  0.000036
    y        0.000026
    z        0.000000        Norm / debye:          0.000092


 Electric transition dipole moment (length rep.):

    x        0.000036        Norm:                  0.000042
    y        0.000021
    z        0.000000        Norm / debye:          0.000107


 Magnetic transition dipole moment / i:

    x        0.000000        Norm:                  0.007666
    y        0.000000
    z       -0.007666        Norm / Bohr mag.:      2.100973


 Electric quadrupole transition moment:

   xx        0.507115
   yy       -0.506927        1/3*trace:             0.000046
   zz       -0.000049
   xy       -0.011925
   xz        0.000000        Anisotropy:            0.878429
   yz        0.000000




                         6 singlet a' excitation


 Total energy:                           -615.8455568809529    

 Excitation energy:                      0.1622285115470707    

 Excitation energy / eV:                  4.414464297776761    

 Excitation energy / nm:                  280.8590932968017    

 Excitation energy / cm^(-1):             35605.04266080403    


 Oscillator strength:

    velocity representation:             0.3342412051098716E-09

    length representation:               0.3634566142147313E-09

    mixed representation:                0.3485348171287613E-09


 Rotatory strength:

    velocity representation:              0.000000000000000    

    velocity rep. / 10^(-40)erg*cm^3:     0.000000000000000    

    length representation:                0.000000000000000    

    length rep. / 10^(-40)erg*cm^3:       0.000000000000000    


 Dominant contributions:

      occ. orbital   energy / eV   virt. orbital     energy / eV   |coeff.|^2*100
        8 a"             -5.16          12 a"             -0.80       57.9
        5 a"             -6.97           9 a"             -2.53       41.6
 

 Change of electron number:

             0.000000


 Electric transition dipole moment (velocity rep.):

    x       -0.000022        Norm:                  0.000056
    y        0.000051
    z        0.000000        Norm / debye:          0.000141


 Electric transition dipole moment (length rep.):

    x       -0.000023        Norm:                  0.000058
    y        0.000053
    z        0.000000        Norm / debye:          0.000147


 Magnetic transition dipole moment / i:

    x        0.000000        Norm:                  0.000000
    y        0.000000
    z       -0.000000        Norm / Bohr mag.:      0.000055


 Electric quadrupole transition moment:

   xx        0.137159
   yy        0.184636        1/3*trace:             0.128802
   zz        0.064612
   xy       -1.026945
   xz        0.000000        Anisotropy:            1.781799
   yz        0.000000




                         7 singlet a' excitation


 Total energy:                           -615.8357205123599    

 Excitation energy:                      0.1720648801400248    

 Excitation energy / eV:                  4.682125620433781    

 Excitation energy / nm:                  264.8033266458615    

 Excitation energy / cm^(-1):             37763.87602517172    


 Oscillator strength:

    velocity representation:             0.1911553662473615E-08

    length representation:               0.1886197487582383E-08

    mixed representation:                0.1898827326004729E-08


 Rotatory strength:

    velocity representation:              0.000000000000000    

    velocity rep. / 10^(-40)erg*cm^3:     0.000000000000000    

    length representation:                0.000000000000000    

    length rep. / 10^(-40)erg*cm^3:       0.000000000000000    


 Dominant contributions:

      occ. orbital   energy / eV   virt. orbital     energy / eV   |coeff.|^2*100
        7 a"             -5.97          11 a"             -1.39       60.0
        6 a"             -6.48          10 a"             -1.77       39.5
 

 Change of electron number:

             0.000000


 Electric transition dipole moment (velocity rep.):

    x       -0.000087        Norm:                  0.000129
    y        0.000096
    z        0.000000        Norm / debye:          0.000328


 Electric transition dipole moment (length rep.):

    x       -0.000086        Norm:                  0.000128
    y        0.000095
    z        0.000000        Norm / debye:          0.000326


 Magnetic transition dipole moment / i:

    x        0.000000        Norm:                  0.000000
    y        0.000000
    z       -0.000000        Norm / Bohr mag.:      0.000089


 Electric quadrupole transition moment:

   xx       -0.162150
   yy       -0.158176        1/3*trace:            -0.123681
   zz       -0.050716
   xy       -0.086144
   xz        0.000000        Anisotropy:            0.185074
   yz        0.000000




                         8 singlet a' excitation


 Total energy:                           -615.8229058175282    

 Excitation energy:                      0.1848795749717342    

 Excitation energy / eV:                  5.030831358297077    

 Excitation energy / nm:                  246.4488176531457    

 Excitation energy / cm^(-1):             40576.37644089433    


 Oscillator strength:

    velocity representation:             0.5393792317241607    

    length representation:               0.5435959125138564    

    mixed representation:                0.5414834675753656    


 Rotatory strength:

    velocity representation:              0.000000000000000    

    velocity rep. / 10^(-40)erg*cm^3:     0.000000000000000    

    length representation:                0.000000000000000    

    length rep. / 10^(-40)erg*cm^3:       0.000000000000000    


 Dominant contributions:

      occ. orbital   energy / eV   virt. orbital     energy / eV   |coeff.|^2*100
        7 a"             -5.97          10 a"             -1.77       78.4
        6 a"             -6.48          11 a"             -1.39       12.9
 

 Change of electron number:

             0.000000


 Electric transition dipole moment (velocity rep.):

    x       -1.462006        Norm:                  2.091935
    y        1.496239
    z        0.000000        Norm / debye:          5.317210


 Electric transition dipole moment (length rep.):

    x       -1.467705        Norm:                  2.100097
    y        1.502081
    z        0.000000        Norm / debye:          5.337953


 Magnetic transition dipole moment / i:

    x        0.000000        Norm:                  0.000001
    y        0.000000
    z       -0.000001        Norm / Bohr mag.:      0.000159


 Electric quadrupole transition moment:

   xx       -0.000458
   yy       -0.000898        1/3*trace:            -0.000457
   zz       -0.000015
   xy        0.000257
   xz        0.000000        Anisotropy:            0.000885
   yz        0.000000




                         9 singlet a' excitation


 Total energy:                           -615.8199212288898    

 Excitation energy:                      0.1878641636101455    

 Excitation energy / eV:                  5.112046182141365    

 Excitation energy / nm:                  242.5334975251203    

 Excitation energy / cm^(-1):             41231.41793010106    


 Oscillator strength:

    velocity representation:             0.6735545426834162E-08

    length representation:               0.6879231761773660E-08

    mixed representation:                0.6806764349760455E-08


 Rotatory strength:

    velocity representation:              0.000000000000000    

    velocity rep. / 10^(-40)erg*cm^3:     0.000000000000000    

    length representation:                0.000000000000000    

    length rep. / 10^(-40)erg*cm^3:       0.000000000000000    


 Dominant contributions:

      occ. orbital   energy / eV   virt. orbital     energy / eV   |coeff.|^2*100
        4 a"             -7.51           9 a"             -2.53       71.9
        8 a"             -5.16          13 a"              0.17       16.3
        7 a"             -5.97          12 a"             -0.80       11.4
 

 Change of electron number:

            -0.000000


 Electric transition dipole moment (velocity rep.):

    x       -0.000180        Norm:                  0.000232
    y        0.000146
    z        0.000000        Norm / debye:          0.000589


 Electric transition dipole moment (length rep.):

    x       -0.000181        Norm:                  0.000234
    y        0.000149
    z        0.000000        Norm / debye:          0.000596


 Magnetic transition dipole moment / i:

    x        0.000000        Norm:                  0.000598
    y        0.000000
    z        0.000598        Norm / Bohr mag.:      0.163952


 Electric quadrupole transition moment:

   xx       -1.212252
   yy        1.216522        1/3*trace:             0.001442
   zz        0.000056
   xy        0.026671
   xz        0.000000        Anisotropy:            2.103888
   yz        0.000000




                        10 singlet a' excitation


 Total energy:                           -615.8195587774561    

 Excitation energy:                      0.1882266150438085    

 Excitation energy / eV:                  5.121908991695154    

 Excitation energy / nm:                  242.0664721054216    

 Excitation energy / cm^(-1):             41310.96682465093    


 Oscillator strength:

    velocity representation:             0.5202333206327817E-07

    length representation:               0.5316159858420345E-07

    mixed representation:                0.5258914218986321E-07


 Rotatory strength:

    velocity representation:              0.000000000000000    

    velocity rep. / 10^(-40)erg*cm^3:     0.000000000000000    

    length representation:                0.000000000000000    

    length rep. / 10^(-40)erg*cm^3:       0.000000000000000    


 Dominant contributions:

      occ. orbital   energy / eV   virt. orbital     energy / eV   |coeff.|^2*100
        6 a"             -6.48          10 a"             -1.77       38.4
        7 a"             -5.97          11 a"             -1.39       22.8
        5 a"             -6.97           9 a"             -2.53       18.0
        8 a"             -5.16          12 a"             -0.80       11.0
 

 Change of electron number:

            -0.000000


 Electric transition dipole moment (velocity rep.):

    x       -0.000429        Norm:                  0.000644
    y        0.000480
    z        0.000000        Norm / debye:          0.001637


 Electric transition dipole moment (length rep.):

    x       -0.000435        Norm:                  0.000651
    y        0.000484
    z        0.000000        Norm / debye:          0.001654


 Magnetic transition dipole moment / i:

    x        0.000000        Norm:                  0.000001
    y        0.000000
    z       -0.000001        Norm / Bohr mag.:      0.000204


 Electric quadrupole transition moment:

   xx        2.245195
   yy        2.316506        1/3*trace:             1.537179
   zz        0.049836
   xy       -1.586933
   xz        0.000000        Anisotropy:            3.540665
   yz        0.000000




                        11 singlet a' excitation


 Total energy:                           -615.8154260756468    

 Excitation energy:                      0.1923593168531783    

 Excitation energy / eV:                  5.234365577882394    

 Excitation energy / nm:                  236.8658477549961    

 Excitation energy / cm^(-1):             42217.99002805560    


 Oscillator strength:

    velocity representation:             0.6699173956636192E-09

    length representation:               0.6660630052617738E-09

    mixed representation:                0.6679871820730447E-09


 Rotatory strength:

    velocity representation:              0.000000000000000    

    velocity rep. / 10^(-40)erg*cm^3:     0.000000000000000    

    length representation:                0.000000000000000    

    length rep. / 10^(-40)erg*cm^3:       0.000000000000000    


 Dominant contributions:

      occ. orbital   energy / eV   virt. orbital     energy / eV   |coeff.|^2*100
        5 a"             -6.97          10 a"             -1.77       51.4
        7 a"             -5.97          12 a"             -0.80       43.2
 

 Change of electron number:

            -0.000000


 Electric transition dipole moment (velocity rep.):

    x        0.000058        Norm:                  0.000072
    y        0.000043
    z        0.000000        Norm / debye:          0.000184


 Electric transition dipole moment (length rep.):

    x        0.000058        Norm:                  0.000072
    y        0.000043
    z        0.000000        Norm / debye:          0.000183


 Magnetic transition dipole moment / i:

    x        0.000000        Norm:                  0.001277
    y        0.000000
    z       -0.001277        Norm / Bohr mag.:      0.350126


 Electric quadrupole transition moment:

   xx       -0.640876
   yy        0.640466        1/3*trace:            -0.000154
   zz       -0.000053
   xy        0.015475
   xz        0.000000        Anisotropy:            1.109998
   yz        0.000000




                        12 singlet a' excitation


 Total energy:                           -615.8084406386720    

 Excitation energy:                      0.1993447538279448    

 Excitation energy / eV:                  5.424449070823331    

 Excitation energy / nm:                  228.5655969623655    

 Excitation energy / cm^(-1):             43751.11622837061    


 Oscillator strength:

    velocity representation:             0.4360896326391514E-09

    length representation:               0.4752730337260135E-09

    mixed representation:                0.4514857852458833E-09


 Rotatory strength:

    velocity representation:              0.000000000000000    

    velocity rep. / 10^(-40)erg*cm^3:     0.000000000000000    

    length representation:                0.000000000000000    

    length rep. / 10^(-40)erg*cm^3:       0.000000000000000    


 Dominant contributions:

      occ. orbital   energy / eV   virt. orbital     energy / eV   |coeff.|^2*100
        8 a"             -5.16          13 a"              0.17       50.7
        7 a"             -5.97          12 a"             -0.80       23.5
        5 a"             -6.97          10 a"             -1.77       22.4
 

 Change of electron number:

            -0.000000


 Electric transition dipole moment (velocity rep.):

    x        0.000021        Norm:                  0.000057
    y        0.000053
    z        0.000000        Norm / debye:          0.000146


 Electric transition dipole moment (length rep.):

    x        0.000015        Norm:                  0.000060
    y        0.000058
    z        0.000000        Norm / debye:          0.000152


 Magnetic transition dipole moment / i:

    x        0.000000        Norm:                  0.000583
    y        0.000000
    z        0.000583        Norm / Bohr mag.:      0.159907


 Electric quadrupole transition moment:

   xx       -0.888791
   yy        0.888258        1/3*trace:            -0.000165
   zz        0.000039
   xy        0.021658
   xz        0.000000        Anisotropy:            1.539427
   yz        0.000000




                        13 singlet a' excitation


 Total energy:                           -615.8069049248186    

 Excitation energy:                      0.2008804676813280    

 Excitation energy / eV:                  5.466237988891497    

 Excitation energy / nm:                  226.8182326829337    

 Excitation energy / cm^(-1):             44088.16645920274    


 Oscillator strength:

    velocity representation:             0.5948589649653636E-08

    length representation:               0.5565495889367071E-08

    mixed representation:                0.5753650719658162E-08


 Rotatory strength:

    velocity representation:              0.000000000000000    

    velocity rep. / 10^(-40)erg*cm^3:     0.000000000000000    

    length representation:                0.000000000000000    

    length rep. / 10^(-40)erg*cm^3:       0.000000000000000    


 Dominant contributions:

      occ. orbital   energy / eV   virt. orbital     energy / eV   |coeff.|^2*100
        5 a"             -6.97           9 a"             -2.53       34.8
        8 a"             -5.16          12 a"             -0.80       25.9
        6 a"             -6.48          10 a"             -1.77       19.2
        7 a"             -5.97          11 a"             -1.39       14.4
 

 Change of electron number:

            -0.000000


 Electric transition dipole moment (velocity rep.):

    x        0.000170        Norm:                  0.000211
    y       -0.000125
    z        0.000000        Norm / debye:          0.000536


 Electric transition dipole moment (length rep.):

    x        0.000163        Norm:                  0.000204
    y       -0.000122
    z        0.000000        Norm / debye:          0.000518


 Magnetic transition dipole moment / i:

    x        0.000000        Norm:                  0.000000
    y        0.000000
    z       -0.000000        Norm / Bohr mag.:      0.000116


 Electric quadrupole transition moment:

   xx        0.991228
   yy        1.312680        1/3*trace:             0.787126
   zz        0.057471
   xy       -6.919768
   xz        0.000000        Anisotropy:           12.038478
   yz        0.000000




                        14 singlet a' excitation


 Total energy:                           -615.7991266791873    

 Excitation energy:                      0.2086587133126429    

 Excitation energy / eV:                  5.677894912272779    

 Excitation energy / nm:                  218.3630481403877    

 Excitation energy / cm^(-1):             45795.29404662947    


 Oscillator strength:

    velocity representation:             0.2445286272008003E-02

    length representation:               0.2450472789925984E-02

    mixed representation:                0.2447878157246307E-02


 Rotatory strength:

    velocity representation:              0.000000000000000    

    velocity rep. / 10^(-40)erg*cm^3:     0.000000000000000    

    length representation:                0.000000000000000    

    length rep. / 10^(-40)erg*cm^3:       0.000000000000000    


 Dominant contributions:

      occ. orbital   energy / eV   virt. orbital     energy / eV   |coeff.|^2*100
        5 a"             -6.97          11 a"             -1.39       55.8
        6 a"             -6.48          12 a"             -0.80       43.9
 

 Change of electron number:

             0.000000


 Electric transition dipole moment (velocity rep.):

    x       -0.094710        Norm:                  0.132584
    y       -0.092783
    z        0.000000        Norm / debye:          0.336998


 Electric transition dipole moment (length rep.):

    x       -0.094810        Norm:                  0.132725
    y       -0.092882
    z        0.000000        Norm / debye:          0.337356


 Magnetic transition dipole moment / i:

    x        0.000000        Norm:                  0.000001
    y        0.000000
    z       -0.000001        Norm / Bohr mag.:      0.000161


 Electric quadrupole transition moment:

   xx       -0.000072
   yy        0.000122        1/3*trace:             0.000013
   zz       -0.000009
   xy       -0.000065
   xz        0.000000        Anisotropy:            0.000206
   yz        0.000000




                        15 singlet a' excitation


 Total energy:                           -615.7922964212914    

 Excitation energy:                      0.2154889712084815    

 Excitation energy / eV:                  5.863755765819715    

 Excitation energy / nm:                  211.4416919087628    

 Excitation energy / cm^(-1):             47294.36237590441    


 Oscillator strength:

    velocity representation:             0.7064685057803538    

    length representation:               0.7050065088917679    

    mixed representation:                0.7057371287521571    


 Rotatory strength:

    velocity representation:              0.000000000000000    

    velocity rep. / 10^(-40)erg*cm^3:     0.000000000000000    

    length representation:                0.000000000000000    

    length rep. / 10^(-40)erg*cm^3:       0.000000000000000    


 Dominant contributions:

      occ. orbital   energy / eV   virt. orbital     energy / eV   |coeff.|^2*100
        6 a"             -6.48          11 a"             -1.39       57.4
        3 a"             -8.59           9 a"             -2.53       22.2
        7 a"             -5.97          10 a"             -1.77        8.7
        8 a"             -5.16           9 a"             -2.53        4.0
 

 Change of electron number:

             0.000000


 Electric transition dipole moment (velocity rep.):

    x        1.549737        Norm:                  2.217581
    y       -1.586184
    z        0.000000        Norm / debye:          5.636571


 Electric transition dipole moment (length rep.):

    x        1.548136        Norm:                  2.215285
    y       -1.584539
    z        0.000000        Norm / debye:          5.630736


 Magnetic transition dipole moment / i:

    x        0.000000        Norm:                  0.000000
    y        0.000000
    z       -0.000000        Norm / Bohr mag.:      0.000043


 Electric quadrupole transition moment:

   xx       -0.000120
   yy       -0.000083        1/3*trace:            -0.000064
   zz        0.000011
   xy        0.000499
   xz        0.000000        Anisotropy:            0.000872
   yz        0.000000




                        16 singlet a' excitation


 Total energy:                           -615.7896708779538    

 Excitation energy:                      0.2181145145461503    

 Excitation energy / eV:                  5.935200465742524    

 Excitation energy / nm:                  208.8964723636462    

 Excitation energy / cm^(-1):             47870.60253032612    


 Oscillator strength:

    velocity representation:             0.8196411593013377E-07

    length representation:               0.8175139647180587E-07

    mixed representation:                0.8185755023915738E-07


 Rotatory strength:

    velocity representation:              0.000000000000000    

    velocity rep. / 10^(-40)erg*cm^3:     0.000000000000000    

    length representation:                0.000000000000000    

    length rep. / 10^(-40)erg*cm^3:       0.000000000000000    


 Dominant contributions:

      occ. orbital   energy / eV   virt. orbital     energy / eV   |coeff.|^2*100
        4 a"             -7.51          10 a"             -1.77       59.7
        7 a"             -5.97          13 a"              0.17       39.1
 

 Change of electron number:

             0.000000


 Electric transition dipole moment (velocity rep.):

    x       -0.000530        Norm:                  0.000751
    y        0.000532
    z        0.000000        Norm / debye:          0.001908


 Electric transition dipole moment (length rep.):

    x       -0.000530        Norm:                  0.000750
    y        0.000530
    z        0.000000        Norm / debye:          0.001906


 Magnetic transition dipole moment / i:

    x        0.000000        Norm:                  0.000000
    y        0.000000
    z       -0.000000        Norm / Bohr mag.:      0.000026


 Electric quadrupole transition moment:

   xx       -0.945603
   yy       -1.031248        1/3*trace:            -0.633946
   zz        0.075014
   xy        1.850014
   xz        0.000000        Anisotropy:            3.376990
   yz        0.000000




                        17 singlet a' excitation


 Total energy:                           -615.7806093500426    

 Excitation energy:                      0.2271760424573084    

 Excitation energy / eV:                  6.181777291638559    

 Excitation energy / nm:                  200.5640743062174    

 Excitation energy / cm^(-1):             49859.37802220528    


 Oscillator strength:

    velocity representation:             0.4562263444301069E-01

    length representation:               0.4560305487252705E-01

    mixed representation:                0.4561284360277548E-01


 Rotatory strength:

    velocity representation:              0.000000000000000    

    velocity rep. / 10^(-40)erg*cm^3:     0.000000000000000    

    length representation:                0.000000000000000    

    length rep. / 10^(-40)erg*cm^3:       0.000000000000000    


 Dominant contributions:

      occ. orbital   energy / eV   virt. orbital     energy / eV   |coeff.|^2*100
        4 a"             -7.51          11 a"             -1.39       75.3
        3 a"             -8.59           9 a"             -2.53       11.3
        6 a"             -6.48          11 a"             -1.39        5.6
 

 Change of electron number:

             0.000000


 Electric transition dipole moment (velocity rep.):

    x        0.383470        Norm:                  0.548851
    y       -0.392668
    z        0.000000        Norm / debye:          1.395051


 Electric transition dipole moment (length rep.):

    x        0.383393        Norm:                  0.548733
    y       -0.392579
    z        0.000000        Norm / debye:          1.394752


 Magnetic transition dipole moment / i:

    x        0.000000        Norm:                  0.000000
    y        0.000000
    z        0.000000        Norm / Bohr mag.:      0.000054


 Electric quadrupole transition moment:

   xx        0.000179
   yy       -0.000314        1/3*trace:            -0.000049
   zz       -0.000012
   xy       -0.000119
   xz        0.000000        Anisotropy:            0.000477
   yz        0.000000




                        18 singlet a' excitation


 Total energy:                           -615.7770005885895    

 Excitation energy:                      0.2307848039104254    

 Excitation energy / eV:                  6.279976729222350    

 Excitation energy / nm:                  197.4278717141382    

 Excitation energy / cm^(-1):             50651.40960941252    


 Oscillator strength:

    velocity representation:             0.8086859541883183E-01

    length representation:               0.7977432395437323E-01

    mixed representation:                0.8031959616843296E-01


 Rotatory strength:

    velocity representation:              0.000000000000000    

    velocity rep. / 10^(-40)erg*cm^3:     0.000000000000000    

    length representation:                0.000000000000000    

    length rep. / 10^(-40)erg*cm^3:       0.000000000000000    


 Dominant contributions:

      occ. orbital   energy / eV   virt. orbital     energy / eV   |coeff.|^2*100
        3 a"             -8.59           9 a"             -2.53       39.9
        8 a"             -5.16          14 a"              1.32       28.4
        4 a"             -7.51          11 a"             -1.39       17.4
        6 a"             -6.48          13 a"              0.17        5.6
 

 Change of electron number:

            -0.000000


 Electric transition dipole moment (velocity rep.):

    x        0.506517        Norm:                  0.724990
    y       -0.518701
    z        0.000000        Norm / debye:          1.842755


 Electric transition dipole moment (length rep.):

    x        0.503079        Norm:                  0.720068
    y       -0.515179
    z        0.000000        Norm / debye:          1.830244


 Magnetic transition dipole moment / i:

    x        0.000000        Norm:                  0.000000
    y        0.000000
    z       -0.000000        Norm / Bohr mag.:      0.000047


 Electric quadrupole transition moment:

   xx       -0.000174
   yy        0.000110        1/3*trace:            -0.000022
   zz       -0.000002
   xy       -0.000035
   xz        0.000000        Anisotropy:            0.000255
   yz        0.000000




                        19 singlet a' excitation


 Total energy:                           -615.7700884346870    

 Excitation energy:                      0.2376969578129724    

 Excitation energy / eV:                  6.468066087452568    

 Excitation energy / nm:                  191.6867303613146    

 Excitation energy / cm^(-1):             52168.45203451559    


 Oscillator strength:

    velocity representation:             0.1881249257474590    

    length representation:               0.1933292380784156    

    mixed representation:                0.1907093247560201    


 Rotatory strength:

    velocity representation:              0.000000000000000    

    velocity rep. / 10^(-40)erg*cm^3:     0.000000000000000    

    length representation:                0.000000000000000    

    length rep. / 10^(-40)erg*cm^3:       0.000000000000000    


 Dominant contributions:

      occ. orbital   energy / eV   virt. orbital     energy / eV   |coeff.|^2*100
        5 a"             -6.97          12 a"             -0.80       56.4
        8 a"             -5.16          14 a"              1.32       25.7
        6 a"             -6.48          13 a"              0.17       11.4
 

 Change of electron number:

            -0.000000


 Electric transition dipole moment (velocity rep.):

    x       -0.747401        Norm:                  1.089575
    y        0.792821
    z        0.000000        Norm / debye:          2.769443


 Electric transition dipole moment (length rep.):

    x       -0.757857        Norm:                  1.104543
    y        0.803534
    z        0.000000        Norm / debye:          2.807489


 Magnetic transition dipole moment / i:

    x        0.000000        Norm:                  0.000000
    y        0.000000
    z       -0.000000        Norm / Bohr mag.:      0.000124


 Electric quadrupole transition moment:

   xx       -0.001036
   yy        0.000887        1/3*trace:            -0.000055
   zz       -0.000016
   xy       -0.000217
   xz        0.000000        Anisotropy:            0.001708
   yz        0.000000




                        20 singlet a' excitation


 Total energy:                           -615.7699911447712    

 Excitation energy:                      0.2377942477287199    

 Excitation energy / eV:                  6.470713481893319    

 Excitation energy / nm:                  191.6083046381321    

 Excitation energy / cm^(-1):             52189.80470284511    


 Oscillator strength:

    velocity representation:             0.6788033832410360    

    length representation:               0.6796004343250145    

    mixed representation:                0.6792017903739033    


 Rotatory strength:

    velocity representation:              0.000000000000000    

    velocity rep. / 10^(-40)erg*cm^3:     0.000000000000000    

    length representation:                0.000000000000000    

    length rep. / 10^(-40)erg*cm^3:       0.000000000000000    


 Dominant contributions:

      occ. orbital   energy / eV   virt. orbital     energy / eV   |coeff.|^2*100
        6 a"             -6.48          12 a"             -0.80       39.2
        5 a"             -6.97          11 a"             -1.39       29.4
        4 a"             -7.51          12 a"             -0.80       11.4
        2 a"             -9.08           9 a"             -2.53       10.9
 

 Change of electron number:

             0.000000


 Electric transition dipole moment (velocity rep.):

    x       -1.487201        Norm:                  2.069269
    y       -1.438787
    z        0.000000        Norm / debye:          5.259597


 Electric transition dipole moment (length rep.):

    x       -1.488169        Norm:                  2.070484
    y       -1.439533
    z        0.000000        Norm / debye:          5.262684


 Magnetic transition dipole moment / i:

    x        0.000000        Norm:                  0.000001
    y        0.000000
    z       -0.000001        Norm / Bohr mag.:      0.000332


 Electric quadrupole transition moment:

   xx       -0.001930
   yy        0.002166        1/3*trace:             0.000082
   zz        0.000011
   xy       -0.000156
   xz        0.000000        Anisotropy:            0.003559
   yz        0.000000




                        21 singlet a' excitation


 Total energy:                           -615.7681773008630    

 Excitation energy:                      0.2396080916369266    

 Excitation energy / eV:                  6.520070707070075    

 Excitation energy / nm:                  190.1578212518851    

 Excitation energy / cm^(-1):             52587.89742474624    


 Oscillator strength:

    velocity representation:             0.3931596968183966E-07

    length representation:               0.4003912605433297E-07

    mixed representation:                0.3966982128261607E-07


 Rotatory strength:

    velocity representation:              0.000000000000000    

    velocity rep. / 10^(-40)erg*cm^3:     0.000000000000000    

    length representation:                0.000000000000000    

    length rep. / 10^(-40)erg*cm^3:       0.000000000000000    


 Dominant contributions:

      occ. orbital   energy / eV   virt. orbital     energy / eV   |coeff.|^2*100
        8 a"             -5.16          13 a"              0.17       26.1
        5 a"             -6.97          10 a"             -1.77       22.7
        7 a"             -5.97          12 a"             -0.80       19.2
        4 a"             -7.51           9 a"             -2.53       16.3
        3 a"             -8.59          11 a"             -1.39        9.3
 

 Change of electron number:

            -0.000000


 Electric transition dipole moment (velocity rep.):

    x        0.000478        Norm:                  0.000496
    y        0.000131
    z        0.000000        Norm / debye:          0.001261


 Electric transition dipole moment (length rep.):

    x        0.000480        Norm:                  0.000501
    y        0.000141
    z        0.000000        Norm / debye:          0.001273


 Magnetic transition dipole moment / i:

    x        0.000000        Norm:                  0.005242
    y        0.000000
    z       -0.005242        Norm / Bohr mag.:      1.436566


 Electric quadrupole transition moment:

   xx       -7.176529
   yy        7.176510        1/3*trace:            -0.000040
   zz       -0.000100
   xy        0.166507
   xz        0.000000        Anisotropy:           12.433442
   yz        0.000000




                        22 singlet a' excitation


 Total energy:                           -615.7602339895617    

 Excitation energy:                      0.2475514029382852    

 Excitation energy / eV:                  6.736219297792981    

 Excitation energy / nm:                  184.0561278150340    

 Excitation energy / cm^(-1):             54331.25273914704    


 Oscillator strength:

    velocity representation:             0.2808048350753495    

    length representation:               0.2799123622620282    

    mixed representation:                0.2803582435386156    


 Rotatory strength:

    velocity representation:              0.000000000000000    

    velocity rep. / 10^(-40)erg*cm^3:     0.000000000000000    

    length representation:                0.000000000000000    

    length rep. / 10^(-40)erg*cm^3:       0.000000000000000    


 Dominant contributions:

      occ. orbital   energy / eV   virt. orbital     energy / eV   |coeff.|^2*100
        2 a"             -9.08           9 a"             -2.53       60.7
        4 a"             -7.51          12 a"             -0.80       14.5
        6 a"             -6.48          12 a"             -0.80       10.1
        5 a"             -6.97          11 a"             -1.39        7.7
 

 Change of electron number:

             0.000000


 Electric transition dipole moment (velocity rep.):

    x        0.933070        Norm:                  1.304413
    y        0.911523
    z        0.000000        Norm / debye:          3.315513


 Electric transition dipole moment (length rep.):

    x        0.931588        Norm:                  1.302339
    y        0.910071
    z        0.000000        Norm / debye:          3.310240


 Magnetic transition dipole moment / i:

    x        0.000000        Norm:                  0.000001
    y        0.000000
    z       -0.000001        Norm / Bohr mag.:      0.000157


 Electric quadrupole transition moment:

   xx       -0.000655
   yy        0.000576        1/3*trace:            -0.000023
   zz        0.000011
   xy       -0.000093
   xz        0.000000        Anisotropy:            0.001079
   yz        0.000000




                        23 singlet a' excitation


 Total energy:                           -615.7584331801337    

 Excitation energy:                      0.2493522123662809    

 Excitation energy / eV:                  6.785221836564842    

 Excitation energy / nm:                  182.7268835019223    

 Excitation energy / cm^(-1):             54726.48472331747    


 Oscillator strength:

    velocity representation:             0.1269141845703879    

    length representation:               0.1249858904258626    

    mixed representation:                0.1259463471729123    


 Rotatory strength:

    velocity representation:              0.000000000000000    

    velocity rep. / 10^(-40)erg*cm^3:     0.000000000000000    

    length representation:                0.000000000000000    

    length rep. / 10^(-40)erg*cm^3:       0.000000000000000    


 Dominant contributions:

      occ. orbital   energy / eV   virt. orbital     energy / eV   |coeff.|^2*100
        6 a"             -6.48          13 a"              0.17       67.9
        5 a"             -6.97          12 a"             -0.80       20.1
        8 a"             -5.16          14 a"              1.32        3.9
 

 Change of electron number:

             0.000000


 Electric transition dipole moment (velocity rep.):

    x        0.610573        Norm:                  0.873764
    y       -0.625031
    z        0.000000        Norm / debye:          2.220903


 Electric transition dipole moment (length rep.):

    x        0.605917        Norm:                  0.867101
    y       -0.620265
    z        0.000000        Norm / debye:          2.203967


 Magnetic transition dipole moment / i:

    x        0.000000        Norm:                  0.000000
    y        0.000000
    z        0.000000        Norm / Bohr mag.:      0.000041


 Electric quadrupole transition moment:

   xx        0.000955
   yy       -0.000356        1/3*trace:             0.000201
   zz        0.000002
   xy       -0.001028
   xz        0.000000        Anisotropy:            0.002132
   yz        0.000000




                        24 singlet a' excitation


 Total energy:                           -615.7552917866299    

 Excitation energy:                      0.2524936058700720    

 Excitation energy / eV:                  6.870703539722368    

 Excitation energy / nm:                  180.4534911012596    

 Excitation energy / cm^(-1):             55415.94090244541    


 Oscillator strength:

    velocity representation:             0.3567740670520071E-01

    length representation:               0.3566565772346669E-01

    mixed representation:                0.3567153172844084E-01


 Rotatory strength:

    velocity representation:              0.000000000000000    

    velocity rep. / 10^(-40)erg*cm^3:     0.000000000000000    

    length representation:                0.000000000000000    

    length rep. / 10^(-40)erg*cm^3:       0.000000000000000    


 Dominant contributions:

      occ. orbital   energy / eV   virt. orbital     energy / eV   |coeff.|^2*100
        4 a"             -7.51          12 a"             -0.80       46.1
        3 a"             -8.59          10 a"             -1.77       27.7
        2 a"             -9.08           9 a"             -2.53       14.5
        5 a"             -6.97          13 a"              0.17        5.8
 

 Change of electron number:

            -0.000000


 Electric transition dipole moment (velocity rep.):

    x       -0.329362        Norm:                  0.460381
    y       -0.321669
    z        0.000000        Norm / debye:          1.170180


 Electric transition dipole moment (length rep.):

    x       -0.329304        Norm:                  0.460305
    y       -0.321620
    z        0.000000        Norm / debye:          1.169987


 Magnetic transition dipole moment / i:

    x        0.000000        Norm:                  0.000000
    y        0.000000
    z        0.000000        Norm / Bohr mag.:      0.000134


 Electric quadrupole transition moment:

   xx        0.000915
   yy       -0.000353        1/3*trace:             0.000185
   zz       -0.000007
   xy       -0.000632
   xz        0.000000        Anisotropy:            0.001578
   yz        0.000000




                        25 singlet a' excitation


 Total energy:                           -615.7520571836112    

 Excitation energy:                      0.2557282088887142    

 Excitation energy / eV:                  6.958721603915318    

 Excitation energy / nm:                  178.1710076412724    

 Excitation energy / cm^(-1):             56125.85420542301    


 Oscillator strength:

    velocity representation:             0.3967110324833719E-02

    length representation:               0.3992117427118335E-02

    mixed representation:                0.3979594233438569E-02


 Rotatory strength:

    velocity representation:              0.000000000000000    

    velocity rep. / 10^(-40)erg*cm^3:     0.000000000000000    

    length representation:                0.000000000000000    

    length rep. / 10^(-40)erg*cm^3:       0.000000000000000    


 Dominant contributions:

      occ. orbital   energy / eV   virt. orbital     energy / eV   |coeff.|^2*100
        3 a"             -8.59          10 a"             -1.77       58.7
        5 a"             -6.97          13 a"              0.17       18.4
        4 a"             -7.51          12 a"             -0.80       13.5
 

 Change of electron number:

            -0.000000


 Electric transition dipole moment (velocity rep.):

    x        0.109106        Norm:                  0.152543
    y        0.106609
    z        0.000000        Norm / debye:          0.387730


 Electric transition dipole moment (length rep.):

    x        0.109449        Norm:                  0.153023
    y        0.106945
    z        0.000000        Norm / debye:          0.388950


 Magnetic transition dipole moment / i:

    x        0.000000        Norm:                  0.000001
    y        0.000000
    z        0.000001        Norm / Bohr mag.:      0.000160


 Electric quadrupole transition moment:

   xx        0.000881
   yy       -0.000710        1/3*trace:             0.000063
   zz        0.000017
   xy       -0.000257
   xz        0.000000        Anisotropy:            0.001450
   yz        0.000000




                        26 singlet a' excitation


 Total energy:                           -615.7449718960946    

 Excitation energy:                      0.2628134964053447    

 Excitation energy / eV:                  7.151522169508705    

 Excitation energy / nm:                  173.3676286918171    

 Excitation energy / cm^(-1):             57680.89506653880    


 Oscillator strength:

    velocity representation:             0.1330947414975042E-08

    length representation:               0.1701071655101517E-08

    mixed representation:                0.1504395887951986E-08


 Rotatory strength:

    velocity representation:              0.000000000000000    

    velocity rep. / 10^(-40)erg*cm^3:     0.000000000000000    

    length representation:                0.000000000000000    

    length rep. / 10^(-40)erg*cm^3:       0.000000000000000    


 Dominant contributions:

      occ. orbital   energy / eV   virt. orbital     energy / eV   |coeff.|^2*100
        7 a"             -5.97          13 a"              0.17       55.3
        4 a"             -7.51          10 a"             -1.77       31.0
        5 a"             -6.97           9 a"             -2.53        3.2
        8 a"             -5.16          12 a"             -0.80        2.9
 

 Change of electron number:

            -0.000000


 Electric transition dipole moment (velocity rep.):

    x       -0.000049        Norm:                  0.000087
    y        0.000072
    z        0.000000        Norm / debye:          0.000222


 Electric transition dipole moment (length rep.):

    x       -0.000054        Norm:                  0.000099
    y        0.000083
    z        0.000000        Norm / debye:          0.000250


 Magnetic transition dipole moment / i:

    x        0.000000        Norm:                  0.000000
    y        0.000000
    z       -0.000000        Norm / Bohr mag.:      0.000017


 Electric quadrupole transition moment:

   xx        4.534661
   yy        5.085876        1/3*trace:             3.251814
   zz        0.134905
   xy      -11.900804
   xz        0.000000        Anisotropy:           21.141766
   yz        0.000000




                        27 singlet a' excitation


 Total energy:                           -615.7406777571071    

 Excitation energy:                      0.2671076353929197    

 Excitation energy / eV:                  7.268371686708650    

 Excitation energy / nm:                  170.5804949865082    

 Excitation energy / cm^(-1):             58623.34963501129    


 Oscillator strength:

    velocity representation:             0.3186205783790075E-01

    length representation:               0.3157090923455996E-01

    mixed representation:                0.3171614944960308E-01


 Rotatory strength:

    velocity representation:              0.000000000000000    

    velocity rep. / 10^(-40)erg*cm^3:     0.000000000000000    

    length representation:                0.000000000000000    

    length rep. / 10^(-40)erg*cm^3:       0.000000000000000    


 Dominant contributions:

      occ. orbital   energy / eV   virt. orbital     energy / eV   |coeff.|^2*100
        8 a"             -5.16          14 a"              1.32       28.0
        2 a"             -9.08          10 a"             -1.77       19.7
        3 a"             -8.59           9 a"             -2.53       18.4
        6 a"             -6.48          13 a"              0.17       12.2
        6 a"             -6.48          11 a"             -1.39        8.7
        5 a"             -6.97          12 a"             -0.80        6.2
 

 Change of electron number:

            -0.000000


 Electric transition dipole moment (velocity rep.):

    x       -0.295217        Norm:                  0.422999
    y        0.302944
    z        0.000000        Norm / debye:          1.075164


 Electric transition dipole moment (length rep.):

    x       -0.293869        Norm:                  0.421062
    y        0.301553
    z        0.000000        Norm / debye:          1.070241


 Magnetic transition dipole moment / i:

    x        0.000000        Norm:                  0.000000
    y        0.000000
    z       -0.000000        Norm / Bohr mag.:      0.000013


 Electric quadrupole transition moment:

   xx        0.000746
   yy        0.000530        1/3*trace:             0.000429
   zz        0.000011
   xy       -0.001233
   xz        0.000000        Anisotropy:            0.002233
   yz        0.000000




                        28 singlet a' excitation


 Total energy:                           -615.7405916656635    

 Excitation energy:                      0.2671937268364113    

 Excitation energy / eV:                  7.270714355084348    

 Excitation energy / nm:                  170.5255329137875    

 Excitation energy / cm^(-1):             58642.24452277805    


 Oscillator strength:

    velocity representation:             0.3137890768408253E-01

    length representation:               0.3026445726121482E-01

    mixed representation:                0.3081664500972820E-01


 Rotatory strength:

    velocity representation:              0.000000000000000    

    velocity rep. / 10^(-40)erg*cm^3:     0.000000000000000    

    length representation:                0.000000000000000    

    length rep. / 10^(-40)erg*cm^3:       0.000000000000000    


 Dominant contributions:

      occ. orbital   energy / eV   virt. orbital     energy / eV   |coeff.|^2*100
        5 a"             -6.97          13 a"              0.17       45.5
        7 a"             -5.97          14 a"              1.32       26.8
        8 a"             -5.16          15 a"              2.23       24.5
 

 Change of electron number:

            -0.000000


 Electric transition dipole moment (velocity rep.):

    x        0.300693        Norm:                  0.419712
    y        0.292817
    z        0.000000        Norm / debye:          1.066810


 Electric transition dipole moment (length rep.):

    x        0.295314        Norm:                  0.412191
    y        0.287561
    z        0.000000        Norm / debye:          1.047694


 Magnetic transition dipole moment / i:

    x        0.000000        Norm:                  0.000000
    y        0.000000
    z        0.000000        Norm / Bohr mag.:      0.000060


 Electric quadrupole transition moment:

   xx        0.000627
   yy        0.000597        1/3*trace:             0.000405
   zz       -0.000011
   xy       -0.001600
   xz        0.000000        Anisotropy:            0.002840
   yz        0.000000




                        29 singlet a' excitation


 Total energy:                           -615.7334351428381    

 Excitation energy:                      0.2743502496619015    

[...]

      occ. orbital   energy / eV   virt. orbital     energy / eV   |coeff.|^2*100
       41 a'             -9.53          11 a"             -1.39       99.0
 

 Change of electron number:

             0.000000


 Electric transition dipole moment (velocity rep.):

    x        0.000000        Norm:                  0.000025
    y        0.000000
    z       -0.000025        Norm / debye:          0.000063


 Electric transition dipole moment (length rep.):

    x        0.000000        Norm:                  0.000026
    y        0.000000
    z       -0.000026        Norm / debye:          0.000065


 Magnetic transition dipole moment / i:

    x       -0.000971        Norm:                  0.001389
    y        0.000993
    z        0.000000        Norm / Bohr mag.:      0.380673


 Electric quadrupole transition moment:

   xx        0.000000
   yy        0.000000        1/3*trace:             0.000000
   zz        0.000000
   xy        0.000000
   xz       -0.251950        Anisotropy:            0.610266
   yz       -0.246298




                        47 singlet a" excitation


 Total energy:                           -615.7074252509734    

 Excitation energy:                      0.3003601415265179    

 Excitation energy / eV:                  8.173218804755347    

 Excitation energy / nm:                  151.6957357538645    

 Excitation energy / cm^(-1):             65921.43113853225    


 Oscillator strength:

    velocity representation:             0.2857942522201123E-08

    length representation:               0.2883085608789168E-08

    mixed representation:                0.2870486536548234E-08


 Rotatory strength:

    velocity representation:              0.000000000000000    

    velocity rep. / 10^(-40)erg*cm^3:     0.000000000000000    

    length representation:                0.000000000000000    

    length rep. / 10^(-40)erg*cm^3:       0.000000000000000    


 Dominant contributions:

      occ. orbital   energy / eV   virt. orbital     energy / eV   |coeff.|^2*100
       36 a'            -10.68           9 a"             -2.53       50.7
       44 a'             -7.98          13 a"              0.17       47.6
 

 Change of electron number:

             0.000000


 Electric transition dipole moment (velocity rep.):

    x        0.000000        Norm:                  0.000119
    y        0.000000
    z        0.000119        Norm / debye:          0.000304


 Electric transition dipole moment (length rep.):

    x        0.000000        Norm:                  0.000120
    y        0.000000
    z        0.000120        Norm / debye:          0.000305


 Magnetic transition dipole moment / i:

    x        0.000462        Norm:                  0.000646
    y        0.000452
    z        0.000000        Norm / Bohr mag.:      0.177065


 Electric quadrupole transition moment:

   xx        0.000000
   yy        0.000000        1/3*trace:             0.000000
   zz        0.000000
   xy        0.000000
   xz       -0.185931        Anisotropy:            0.460715
   yz        0.190216




                        48 singlet a" excitation


 Total energy:                           -615.7070491000781    

 Excitation energy:                      0.3007362924218697    

 Excitation energy / eV:                  8.183454395788464    

 Excitation energy / nm:                  151.5059998015943    

 Excitation energy / cm^(-1):             66003.98671737706    


 Oscillator strength:

    velocity representation:             0.1844230159567021E-03

    length representation:               0.1763906230287508E-03

    mixed representation:                0.1803621098940792E-03


 Rotatory strength:

    velocity representation:              0.000000000000000    

    velocity rep. / 10^(-40)erg*cm^3:     0.000000000000000    

    length representation:                0.000000000000000    

    length rep. / 10^(-40)erg*cm^3:       0.000000000000000    


 Dominant contributions:

      occ. orbital   energy / eV   virt. orbital     energy / eV   |coeff.|^2*100
       37 a'            -10.66           9 a"             -2.53       83.3
       43 a'             -8.90          12 a"             -0.80       14.1
 

 Change of electron number:

             0.000000


 Electric transition dipole moment (velocity rep.):

    x        0.000000        Norm:                  0.030329
    y        0.000000
    z        0.030329        Norm / debye:          0.077090


 Electric transition dipole moment (length rep.):

    x        0.000000        Norm:                  0.029661
    y        0.000000
    z        0.029661        Norm / debye:          0.075392


 Magnetic transition dipole moment / i:

    x       -0.000003        Norm:                  0.000005
    y       -0.000004
    z        0.000000        Norm / Bohr mag.:      0.001328


 Electric quadrupole transition moment:

   xx        0.000000
   yy        0.000000        1/3*trace:             0.000000
   zz        0.000000
   xy        0.000000
   xz        0.001470        Anisotropy:            0.003529
   yz       -0.001411




                        49 singlet a" excitation


 Total energy:                           -615.7068212079012    

 Excitation energy:                      0.3009641845988129    

 Excitation energy / eV:                  8.189655660099310    

 Excitation energy / nm:                  151.3912784032300    

 Excitation energy / cm^(-1):             66054.00326875110    


 Oscillator strength:

    velocity representation:             0.2142806547284553E-10

    length representation:               0.6357909358671766E-09

    mixed representation:                0.1167209055859472E-09


 Rotatory strength:

    velocity representation:              0.000000000000000    

    velocity rep. / 10^(-40)erg*cm^3:     0.000000000000000    

    length representation:                0.000000000000000    

    length rep. / 10^(-40)erg*cm^3:       0.000000000000000    


 Dominant contributions:

      occ. orbital   energy / eV   virt. orbital     energy / eV   |coeff.|^2*100
        8 a"             -5.16          55 a'              3.07       75.9
       42 a'             -8.94          12 a"             -0.80       16.5
 

 Change of electron number:

             0.000000


 Electric transition dipole moment (velocity rep.):

    x        0.000000        Norm:                  0.000010
    y        0.000000
    z       -0.000010        Norm / debye:          0.000026


 Electric transition dipole moment (length rep.):

    x        0.000000        Norm:                  0.000056
    y        0.000000
    z       -0.000056        Norm / debye:          0.000143


 Magnetic transition dipole moment / i:

    x        0.000000        Norm:                  0.000001
    y        0.000000
    z        0.000000        Norm / Bohr mag.:      0.000138


 Electric quadrupole transition moment:

   xx        0.000000
   yy        0.000000        1/3*trace:             0.000000
   zz        0.000000
   xy        0.000000
   xz       -0.000208        Anisotropy:            0.000434
   yz        0.000139




                        50 singlet a" excitation


 Total energy:                           -615.7066765296852    

 Excitation energy:                      0.3011088628148064    

 Excitation energy / eV:                  8.193592556351877    

 Excitation energy / nm:                  151.3185372030156    

 Excitation energy / cm^(-1):             66085.75646677660    


 Oscillator strength:

    velocity representation:             0.9395775833644693E-12

    length representation:               0.9104904497462762E-12

    mixed representation:                0.9249196810799492E-12


 Rotatory strength:

    velocity representation:              0.000000000000000    

    velocity rep. / 10^(-40)erg*cm^3:     0.000000000000000    

    length representation:                0.000000000000000    

    length rep. / 10^(-40)erg*cm^3:       0.000000000000000    


 Dominant contributions:

      occ. orbital   energy / eV   virt. orbital     energy / eV   |coeff.|^2*100
        5 a"             -6.97          48 a'              1.22       96.6
 

 Change of electron number:

             0.000000


 Electric transition dipole moment (velocity rep.):

    x        0.000000        Norm:                  0.000002
    y        0.000000
    z        0.000002        Norm / debye:          0.000005


 Electric transition dipole moment (length rep.):

    x        0.000000        Norm:                  0.000002
    y        0.000000
    z        0.000002        Norm / debye:          0.000005


 Magnetic transition dipole moment / i:

    x        0.001013        Norm:                  0.001416
    y        0.000990
    z        0.000000        Norm / Bohr mag.:      0.388187


 Electric quadrupole transition moment:

   xx        0.000000
   yy        0.000000        1/3*trace:             0.000000
   zz        0.000000
   xy        0.000000
   xz       -0.611346        Anisotropy:            1.514826
   yz        0.625425

 SUMMARY OF EXCITATION ENERGIES AND DIPOLE OSCILLATOR STRENGTHS (velocity/length):

 -----------------------------------------------------------------------------------------------
 |    Exc.   | energy (Eh) | energy (eV) | energy (cm-1) | energy (nm) | Osc.(vel) | Osc.(len) |
 -----------------------------------------------------------------------------------------------
 |     1 a'  |    0.123209 |     3.35270 |     27041.339 |     369.804 |   0.20208 |   0.20267 |
 |     2 a'  |    0.126990 |     3.45558 |     27871.132 |     358.794 |   0.00046 |   0.00033 |
 |     3 a'  |    0.140745 |     3.82986 |     30889.939 |     323.730 |   0.00000 |   0.00000 |
 |     4 a'  |    0.152591 |     4.15221 |     33489.820 |     298.598 |   0.18009 |   0.17471 |
 |     5 a'  |    0.153975 |     4.18987 |     33793.549 |     295.914 |   0.00000 |   0.00000 |
 |     6 a'  |    0.162229 |     4.41446 |     35605.043 |     280.859 |   0.00000 |   0.00000 |
 |     7 a'  |    0.172065 |     4.68212 |     37763.876 |     264.803 |   0.00000 |   0.00000 |
 |     8 a'  |    0.184880 |     5.03083 |     40576.376 |     246.449 |   0.53938 |   0.54360 |
 |     9 a'  |    0.187864 |     5.11204 |     41231.418 |     242.533 |   0.00000 |   0.00000 |
 |    10 a'  |    0.188227 |     5.12191 |     41310.967 |     242.066 |   0.00000 |   0.00000 |
 |    11 a'  |    0.192359 |     5.23436 |     42217.990 |     236.866 |   0.00000 |   0.00000 |
 |    12 a'  |    0.199345 |     5.42445 |     43751.116 |     228.566 |   0.00000 |   0.00000 |
 |    13 a'  |    0.200880 |     5.46624 |     44088.166 |     226.818 |   0.00000 |   0.00000 |
 |    14 a'  |    0.208659 |     5.67789 |     45795.294 |     218.363 |   0.00245 |   0.00245 |
 |    15 a'  |    0.215489 |     5.86375 |     47294.362 |     211.442 |   0.70647 |   0.70501 |
 |    16 a'  |    0.218115 |     5.93520 |     47870.603 |     208.896 |   0.00000 |   0.00000 |
 |    17 a'  |    0.227176 |     6.18177 |     49859.378 |     200.564 |   0.04562 |   0.04560 |
 |    18 a'  |    0.230785 |     6.27997 |     50651.410 |     197.428 |   0.08087 |   0.07977 |
 |    19 a'  |    0.237697 |     6.46806 |     52168.452 |     191.687 |   0.18812 |   0.19333 |
 |    20 a'  |    0.237794 |     6.47071 |     52189.805 |     191.608 |   0.67880 |   0.67960 |
 |    21 a'  |    0.239608 |     6.52007 |     52587.897 |     190.158 |   0.00000 |   0.00000 |
 |    22 a'  |    0.247551 |     6.73622 |     54331.253 |     184.056 |   0.28080 |   0.27991 |
 |    23 a'  |    0.249352 |     6.78522 |     54726.485 |     182.727 |   0.12691 |   0.12499 |
 |    24 a'  |    0.252494 |     6.87070 |     55415.941 |     180.453 |   0.03568 |   0.03567 |
 |    25 a'  |    0.255728 |     6.95872 |     56125.854 |     178.171 |   0.00397 |   0.00399 |
 |    26 a'  |    0.262813 |     7.15152 |     57680.895 |     173.368 |   0.00000 |   0.00000 |
 |    27 a'  |    0.267108 |     7.26837 |     58623.350 |     170.580 |   0.03186 |   0.03157 |
 |    28 a'  |    0.267194 |     7.27071 |     58642.245 |     170.526 |   0.03138 |   0.03026 |
 |    29 a'  |    0.274350 |     7.46545 |     60212.920 |     166.077 |   0.00000 |   0.00000 |
 |    30 a'  |    0.276095 |     7.51293 |     60595.845 |     165.028 |   0.00375 |   0.00361 |
 |    31 a'  |    0.276933 |     7.53573 |     60779.763 |     164.528 |   0.02393 |   0.02392 |
 |    32 a'  |    0.287184 |     7.81466 |     63029.493 |     158.656 |   0.00000 |   0.00000 |
 |    33 a'  |    0.288386 |     7.84739 |     63293.501 |     157.994 |   0.00000 |   0.00000 |
 |    34 a'  |    0.294270 |     8.00749 |     64584.735 |     154.835 |   0.00000 |   0.00000 |
 |    35 a'  |    0.295654 |     8.04516 |     64888.612 |     154.110 |   0.03738 |   0.03727 |
 |    36 a'  |    0.300272 |     8.17082 |     65902.129 |     151.740 |   0.07252 |   0.07041 |
 |    37 a'  |    0.310078 |     8.43765 |     68054.277 |     146.942 |   0.00000 |   0.00000 |
 |    38 a'  |    0.312750 |     8.51035 |     68640.583 |     145.686 |   0.00000 |   0.00000 |
 |    39 a'  |    0.314864 |     8.56788 |     69104.615 |     144.708 |   0.00000 |   0.00000 |
 |    40 a'  |    0.317589 |     8.64204 |     69702.720 |     143.466 |   0.00000 |   0.00000 |
 |    41 a'  |    0.324081 |     8.81868 |     71127.485 |     140.593 |   0.00000 |   0.00000 |
 |    42 a'  |    0.324411 |     8.82767 |     71199.988 |     140.449 |   0.00000 |   0.00000 |
 |    43 a'  |    0.325497 |     8.85722 |     71438.336 |     139.981 |   0.00000 |   0.00000 |
 |    44 a'  |    0.325547 |     8.85859 |     71449.313 |     139.959 |   0.07446 |   0.07263 |
 |    45 a'  |    0.329847 |     8.97560 |     72393.079 |     138.135 |   0.00017 |   0.00013 |
 |    46 a'  |    0.331134 |     9.01061 |     72675.446 |     137.598 |   0.11787 |   0.11654 |
 |    47 a'  |    0.333950 |     9.08724 |     73293.519 |     136.438 |   0.00006 |   0.00009 |
 |    48 a'  |    0.334158 |     9.09290 |     73339.188 |     136.353 |   0.00000 |   0.00000 |
 |    49 a'  |    0.336308 |     9.15141 |     73811.126 |     135.481 |   0.00000 |   0.00000 |
 |    50 a'  |    0.338989 |     9.22437 |     74399.582 |     134.409 |   0.10522 |   0.10392 |
 -----------------------------------------------------------------------------------------------


 -----------------------------------------------------------------------------------------------
 |    Exc.   | energy (Eh) | energy (eV) | energy (cm-1) | energy (nm) | Osc.(vel) | Osc.(len) |
 -----------------------------------------------------------------------------------------------
 |     1 a"  |    0.193346 |     5.26122 |     42434.622 |     235.657 |   0.00000 |   0.00000 |
 |     2 a"  |    0.200911 |     5.46707 |     44094.925 |     226.783 |   0.00000 |   0.00000 |
 |     3 a"  |    0.219493 |     5.97272 |     48173.245 |     207.584 |   0.00000 |   0.00000 |
 |     4 a"  |    0.220193 |     5.99176 |     48326.818 |     206.924 |   0.00000 |   0.00000 |
 |     5 a"  |    0.229011 |     6.23171 |     50262.160 |     198.957 |   0.00000 |   0.00000 |
 |     6 a"  |    0.230412 |     6.26984 |     50569.649 |     197.747 |   0.00023 |   0.00031 |
 |     7 a"  |    0.234365 |     6.37739 |     51437.083 |     194.412 |   0.00002 |   0.00002 |
 |     8 a"  |    0.235284 |     6.40241 |     51638.951 |     193.652 |   0.00000 |   0.00000 |
 |     9 a"  |    0.236154 |     6.42609 |     51829.882 |     192.939 |   0.00000 |   0.00000 |
 |    10 a"  |    0.237832 |     6.47174 |     52198.088 |     191.578 |   0.00000 |   0.00000 |
 |    11 a"  |    0.242902 |     6.60969 |     53310.742 |     187.579 |   0.00000 |   0.00000 |
 |    12 a"  |    0.247870 |     6.74489 |     54401.168 |     183.820 |   0.00000 |   0.00000 |
 |    13 a"  |    0.249568 |     6.79109 |     54773.835 |     182.569 |   0.00000 |   0.00000 |
 |    14 a"  |    0.257038 |     6.99436 |     56413.324 |     177.263 |   0.00000 |   0.00000 |
 |    15 a"  |    0.257194 |     6.99861 |     56447.579 |     177.156 |   0.00000 |   0.00000 |
 |    16 a"  |    0.258962 |     7.04671 |     56835.588 |     175.946 |   0.00101 |   0.00092 |
 |    17 a"  |    0.259074 |     7.04976 |     56860.126 |     175.870 |   0.00260 |   0.00291 |
 |    18 a"  |    0.262662 |     7.14739 |     57647.584 |     173.468 |   0.00000 |   0.00000 |
 |    19 a"  |    0.263791 |     7.17812 |     57895.413 |     172.725 |   0.00000 |   0.00000 |
 |    20 a"  |    0.264226 |     7.18996 |     57990.942 |     172.441 |   0.00000 |   0.00000 |
 |    21 a"  |    0.264445 |     7.19590 |     58038.875 |     172.298 |   0.00000 |   0.00000 |
 |    22 a"  |    0.264708 |     7.20306 |     58096.596 |     172.127 |   0.00000 |   0.00000 |
 |    23 a"  |    0.265414 |     7.22228 |     58251.640 |     171.669 |   0.00000 |   0.00000 |
 |    24 a"  |    0.267544 |     7.28025 |     58719.140 |     170.302 |   0.00000 |   0.00000 |
 |    25 a"  |    0.268283 |     7.30036 |     58881.414 |     169.833 |   0.00227 |   0.00249 |
 |    26 a"  |    0.273677 |     7.44713 |     60065.141 |     166.486 |   0.00606 |   0.00571 |
 |    27 a"  |    0.277055 |     7.53905 |     60806.538 |     164.456 |   0.00000 |   0.00000 |
 |    28 a"  |    0.277736 |     7.55758 |     60956.016 |     164.053 |   0.00000 |   0.00000 |
 |    29 a"  |    0.277992 |     7.56455 |     61012.212 |     163.902 |   0.00000 |   0.00000 |
 |    30 a"  |    0.278312 |     7.57325 |     61082.355 |     163.713 |   0.00007 |   0.00012 |
 |    31 a"  |    0.281284 |     7.65414 |     61734.773 |     161.983 |   0.00000 |   0.00000 |
 |    32 a"  |    0.283120 |     7.70409 |     62137.656 |     160.933 |   0.00000 |   0.00000 |
 |    33 a"  |    0.283134 |     7.70447 |     62140.761 |     160.925 |   0.00000 |   0.00000 |
 |    34 a"  |    0.285724 |     7.77493 |     62709.077 |     159.467 |   0.00000 |   0.00000 |
 |    35 a"  |    0.286359 |     7.79223 |     62848.610 |     159.113 |   0.00000 |   0.00000 |
 |    36 a"  |    0.286943 |     7.80812 |     62976.740 |     158.789 |   0.00000 |   0.00000 |
 |    37 a"  |    0.290140 |     7.89511 |     63678.378 |     157.039 |   0.00000 |   0.00000 |
 |    38 a"  |    0.291639 |     7.93591 |     64007.401 |     156.232 |   0.00000 |   0.00000 |
 |    39 a"  |    0.292281 |     7.95338 |     64148.298 |     155.889 |   0.00000 |   0.00000 |
 |    40 a"  |    0.294594 |     8.01630 |     64655.829 |     154.665 |   0.00245 |   0.00231 |
 |    41 a"  |    0.295186 |     8.03243 |     64785.924 |     154.355 |   0.00000 |   0.00000 |
 |    42 a"  |    0.295856 |     8.05065 |     64932.881 |     154.005 |   0.00000 |   0.00000 |
 |    43 a"  |    0.296638 |     8.07192 |     65104.453 |     153.599 |   0.00277 |   0.00295 |
 |    44 a"  |    0.298751 |     8.12942 |     65568.159 |     152.513 |   0.00066 |   0.00083 |
 |    45 a"  |    0.299829 |     8.15876 |     65804.869 |     151.964 |   0.00000 |   0.00000 |
 |    46 a"  |    0.300056 |     8.16493 |     65854.618 |     151.850 |   0.00000 |   0.00000 |
 |    47 a"  |    0.300360 |     8.17322 |     65921.431 |     151.696 |   0.00000 |   0.00000 |
 |    48 a"  |    0.300736 |     8.18345 |     66003.987 |     151.506 |   0.00018 |   0.00018 |
 |    49 a"  |    0.300964 |     8.18965 |     66054.003 |     151.391 |   0.00000 |   0.00000 |
 |    50 a"  |    0.301109 |     8.19359 |     66085.756 |     151.319 |   0.00000 |   0.00000 |
 -----------------------------------------------------------------------------------------------




    ------------------------------------------------------------------------
         total  cpu-time : 36 minutes and 19 seconds
         total wall-time :  5 minutes and 46 seconds
    ------------------------------------------------------------------------

   ****  escf : all done  ****


    2019-06-04 09:50:25.739 

